LAMMPS data file via write_data, version 7 Feb 2024, timestep = 11447500, units = real

8748 atoms
12 atom types
8748 bonds
12 bond types
13122 angles
18 angle types
17496 dihedrals
24 dihedral types
4374 impropers
6 improper types

16.13200797791446 63.86799202208734 xlo xhi
16.13200797791446 63.86799202208734 ylo yhi
16.13200797791446 63.86799202208734 zlo zhi

Masses

1 12.011
2 12.011
3 12.011
4 12.011
5 12.011
6 12.011
7 1.008
8 1.008
9 1.008
10 1.008
11 1.008
12 1.008

Pair Coeffs # lj/cut/coul/long

1 0.07 3.55
2 0.07 3.55
3 0.07 3.55
4 0.07 3.55
5 0.07 3.55
6 0.07 3.55
7 0.03 2.42
8 0.03 2.42
9 0.03 2.42
10 0.03 2.42
11 0.03 2.42
12 0.03 2.42

Bond Coeffs # harmonic

1 469 1.4
2 469 1.4
3 469 1.4
4 469 1.4
5 469 1.4
6 367 1.08
7 367 1.08
8 367 1.08
9 367 1.08
10 367 1.08
11 367 1.08
12 469 1.4

Angle Coeffs # harmonic

1 63 120
2 63 120
3 63 120
4 63 120
5 35 120
6 35 120
7 35 120
8 35 120
9 35 120
10 35 120
11 35 120
12 35 120
13 35 120
14 35 120
15 63 120
16 35 120
17 63 120
18 35 120

Dihedral Coeffs # opls

1 0 7.25 0 0
2 0 7.25 0 0
3 0 7.25 0 0
4 0 7.25 0 0
5 0 7.25 0 0
6 0 7.25 0 0
7 0 7.25 0 0
8 0 7.25 0 0
9 0 7.25 0 0
10 0 7.25 0 0
11 0 7.25 0 0
12 0 7.25 0 0
13 0 7.25 0 0
14 0 7.25 0 0
15 0 7.25 0 0
16 0 7.25 0 0
17 0 7.25 0 0
18 0 7.25 0 0
19 0 7.25 0 0
20 0 7.25 0 0
21 0 7.25 0 0
22 0 7.25 0 0
23 0 7.25 0 0
24 0 7.25 0 0

Improper Coeffs # cvff

1 2.5 -1 2
2 2.5 -1 2
3 2.5 -1 2
4 2.5 -1 2
5 2.5 -1 2
6 2.5 -1 2

Atoms # full

7371 615 3 -0.1474 20.49999129901998 18.654875868535665 20.0592674914754 -2 1 2
7377 615 9 0.1474 21.520252616885536 18.423832699129242 20.176719736762088 -2 1 2
7372 615 4 -0.1472 20.18984726165254 20.01815358093192 20.243891205508184 -2 1 2
7369 615 1 -0.1474 18.159910446160577 18.192795501009254 19.65835378298516 -2 1 2
7370 615 2 -0.1476 19.491574214933884 17.748671987481572 19.762507989287936 -2 1 2
7373 615 5 -0.147 18.85277200056768 20.435904968690338 19.99233907075005 -2 1 2
7378 615 10 0.1474 20.98053808643249 20.769794413904176 20.368464112773335 -2 1 2
7374 615 6 -0.147 17.849662334424405 19.51957938935665 19.793571364648646 -2 1 2
7380 615 12 0.147 16.920134551716288 19.89866301445378 19.628361825961342 -2 1 2
7379 615 11 0.147 18.665476554110775 21.580396278572184 20.01894828949188 -2 1 2
4666 389 10 0.1474 24.22842541914991 22.0274616461888 18.76576560291611 -1 3 1
7376 615 8 0.1474 19.643743615192008 16.710997463900082 19.693156758418457 -2 1 2
4660 389 4 -0.1472 24.705028590467027 21.067669779457287 18.710844003633486 -1 3 1
4661 389 5 -0.147 24.062637061377504 19.90382083054433 18.36032476405139 -1 3 1
4667 389 11 0.147 23.028216275611616 19.855819203978562 18.1091246687295 -1 3 1
4668 389 12 0.147 24.120245673164355 17.757196924922688 18.193419842405877 -1 3 1
4662 389 6 -0.147 24.70903478038132 18.66392229637238 18.411462986911314 -1 3 1
3155 263 11 0.147 17.99627747365725 20.315060256485832 23.53502483526787 0 1 0
1582 132 10 0.1474 21.28211325362133 22.392447094410606 19.030801470502425 0 1 -1
7375 615 7 0.1474 17.280584432558083 17.578033942155084 19.28642058986732 -2 1 2
2162 181 2 -0.1476 16.759151469306982 24.077367932938095 18.33980446957753 -3 2 0
599 50 11 0.147 27.34377860558339 39.72371516712857 24.393554400238916 -2 1 0
1809 151 9 0.1474 26.136031202279245 35.02535826019636 16.4859084797222 0 -1 2
4659 389 3 -0.1474 26.083705247233087 21.104454668320077 18.982965586778928 -1 3 1
4658 389 2 -0.1476 26.814524444470308 19.905561547356264 18.926775616007113 -1 3 1
4657 389 1 -0.1474 26.097821866884324 18.661296285099645 18.71587992340351 -1 3 1
4663 389 7 0.1474 26.638852330331755 17.713599232791474 18.57579498037097 -1 3 1
4664 389 8 0.1474 27.822302624760468 19.900733749621693 19.170267306594518 -1 2 1
4020 335 12 0.147 30.04294552251856 16.23051740414872 20.129183382861175 1 1 1
1759 147 7 0.1474 28.142733650786653 20.882348374738534 21.65083694638202 -2 2 0
1753 147 1 -0.1474 29.217841510296157 20.831994324505164 21.48273296691159 -2 2 0
1760 147 8 0.1474 29.374087701867758 22.576757595259313 20.07780388149461 -2 2 0
1754 147 2 -0.1476 29.833088604571056 21.780328301980735 20.616131288657723 -2 2 0
3451 288 7 0.1474 29.975776394822443 19.764214156120943 18.327937036142657 0 0 0
1755 147 3 -0.1474 31.217719738360493 21.64282788835857 20.415262860119448 -2 3 0
5628 469 12 0.147 17.534511576314312 30.953718472152186 16.39727250250176 0 1 0
151 13 7 0.1474 30.96812827018153 28.73716223364174 23.1605175900931 0 1 -1
3550 296 10 0.1474 16.423449584053074 27.73047214115697 24.307913506414717 1 1 0
3445 288 1 -0.1474 30.332293629171435 18.810009837403456 18.205886982982964 0 0 0
3452 288 8 0.1474 28.55326428411009 18.16288852174013 17.383467245525395 0 0 0
3447 288 3 -0.1474 30.104591045015507 16.622508833886755 17.263889056793094 0 0 0
3446 288 2 -0.1476 29.524236618673118 17.904247849385527 17.59491534961229 0 0 0
8446 704 10 0.1474 16.677962728804708 16.56029876168019 24.630798449125738 -1 -1 2
8504 709 8 0.1474 31.783268815274866 36.98373258040225 21.20080676776228 2 -1 0
8674 723 10 0.1474 25.780277399835825 16.614453799871256 23.87629001002151 1 1 -2
1761 147 9 0.1474 31.77210087526249 22.26355339908278 19.728956828937456 -2 3 0
1807 151 7 0.1474 24.011737617333814 38.77622348203758 16.64267940129731 0 -1 2
2169 181 9 0.1474 17.752472318880447 26.12122152849052 18.420878775005257 -2 2 0
5627 469 11 0.147 16.53835310906929 28.77819316478735 16.976045417511916 0 1 0
1573 132 1 -0.1474 21.37174632282811 25.792802423830246 16.97339974925501 0 2 -2
1578 132 6 -0.147 21.16464713599308 25.82303580892288 18.390171413765966 0 0 -2
1584 132 12 0.147 20.981376443996695 26.795885025323738 18.782251162371963 0 0 -2
5218 435 10 0.1474 22.549058371039752 28.86452143216667 18.18930880382397 -2 1 1
1577 132 5 -0.147 21.039203293137753 24.592096314628193 19.176205554915636 0 1 -1
1576 132 4 -0.1472 21.19484961913125 23.380864836068653 18.53899744213771 0 1 -1
1583 132 11 0.147 20.85805009260181 24.65271780876238 20.21906745107211 0 0 -1
3156 263 12 0.147 16.605849724551504 21.68287144474957 22.287802339607566 0 1 0
3150 263 6 -0.147 17.52664722853082 22.130847694239677 22.6454279415423 0 1 0
2637 220 9 0.1474 23.684618626246714 26.687651374113848 18.108261666564307 2 1 1
1579 132 7 0.1474 21.41629741895728 26.76201251030816 16.461999406343814 0 2 -2
3448 288 4 -0.1472 31.441953024202093 16.257846544895706 17.599280561544234 0 0 0
3151 263 7 0.1474 17.46065761355318 24.168007213235374 21.828252002799005 0 1 0
2163 181 3 -0.1474 17.443587799314802 25.22544237561501 17.832891581617705 -3 2 0
2164 181 4 -0.1472 17.93649203588179 25.253490274196043 16.510518517453566 -2 2 0
5626 469 10 0.1474 16.929413855475836 27.818930801350096 19.256408668180068 0 1 0
4665 389 9 0.1474 26.60096071490216 22.07600627230198 19.27910539541155 -1 3 1
2638 220 10 0.1474 24.12407248708604 24.250411274035667 17.67350974269324 2 1 1
2632 220 4 -0.1472 24.914561535659416 25.02222083772849 17.804513002186173 2 1 1
664 56 4 -0.1472 31.771937867028505 27.71179146939862 18.29245634055088 1 2 0
665 56 5 -0.147 31.258442577620762 26.499634828077404 17.783418317485655 1 2 0
2630 220 2 -0.1476 25.69616304988599 27.215730161922384 18.274943241547742 2 1 1
2635 220 7 0.1474 27.738260154197963 27.56099539450168 18.59689644996595 2 1 1
2629 220 1 -0.1474 27.029929233344184 26.86552331761379 18.32131532887798 2 1 1
2631 220 3 -0.1474 24.63704384604661 26.368282712134288 18.07863419921081 2 1 1
2634 220 6 -0.147 27.314709039983814 25.51295719886751 17.98813377091436 2 1 1
2636 220 8 0.1474 25.418585072977475 28.126896846849448 18.677148654341725 2 1 1
2640 220 12 0.147 28.351049410322766 25.23683209734483 18.01024669338614 2 1 1
5986 499 10 0.1474 27.23314926027209 24.72942431707678 20.797954055546498 1 -1 5
671 56 11 0.147 31.262662716013775 26.296438142075615 16.719075818707662 1 2 0
2633 220 5 -0.147 26.26190226284496 24.608450448430066 17.79475900597606 2 1 1
667 56 7 0.1474 30.72019722731239 24.855309821031998 20.676076834464332 1 2 0
661 56 1 -0.1474 30.999765697126815 25.744549213904264 20.077424705200837 1 2 0
672 56 12 0.147 30.34371190621578 24.66646040126345 18.34780617675122 1 2 0
6693 558 9 0.1474 29.384399713421093 22.605887231375572 16.71424198632369 1 1 2
2639 220 11 0.147 26.516144063239448 23.601941880621354 17.57273136620302 2 1 1
666 56 6 -0.147 30.851620586231647 25.60005222269114 18.72977725297731 1 2 0
6687 558 3 -0.1474 30.281225336586616 22.23470690737577 16.2631423590352 1 1 2
6686 558 2 -0.1476 31.395529628561945 23.07769728024918 16.226581773152738 2 1 2
5624 469 8 0.1474 18.97050960835471 31.44237565465651 20.48664727826603 0 0 0
5619 469 3 -0.1474 18.046157805751932 29.600152817825514 19.93216259913806 0 1 0
5621 469 5 -0.147 17.092036687499093 29.34603871909409 17.764260320988928 0 1 0
5213 435 5 -0.147 23.63923188942011 29.688842557863353 16.523300360770875 -1 1 1
5212 435 4 -0.1472 22.499300821015517 29.488807776252013 17.355128575744835 -1 1 1
5618 469 2 -0.1476 18.47776317620285 30.886204606341522 19.716351195255616 0 0 0
5622 469 6 -0.147 17.635166003108218 30.613614637182316 17.418308156675916 0 1 0
2954 247 2 -0.1476 31.67699553464703 39.934318865326325 19.34627850419206 -1 -1 1
5211 435 3 -0.1474 21.335366325949014 30.337802112188683 17.153785069331708 -1 1 1
5217 435 9 0.1474 20.467289719028393 30.326224951861377 17.773751666805087 -1 1 1
1756 147 4 -0.1472 31.964102775760804 20.686945587947687 21.075647084595396 -1 3 0
2294 192 2 -0.1476 23.143483489812873 32.34626178772523 19.69050307767885 -1 1 2
5623 469 7 0.1474 18.705726058426805 32.43345044331047 18.109184205675703 0 0 0
5617 469 1 -0.1474 18.326601950165973 31.421942112033474 18.393051562854087 0 0 0
2293 192 1 -0.1474 21.86167233484761 32.31406422975891 20.314391961247928 -1 1 2
2300 192 8 0.1474 23.45534558247333 31.571470215174056 19.00358590882652 -1 1 2
8075 673 11 0.147 22.255144324181458 33.94875000829219 16.998709596581865 0 -1 0
2295 192 3 -0.1474 23.991956695727215 33.46208048087997 19.93638168509228 -1 1 2
5620 469 4 -0.1472 17.2906673755924 28.824079932369926 19.03605948290778 0 1 0
2299 192 7 0.1474 21.077133977668137 31.61017720086768 19.92028686050143 -1 1 2
2298 192 6 -0.147 21.51356700786838 33.26882380808416 21.260596985865696 -1 1 2
2304 192 12 0.147 20.575969588974225 33.11128065308382 21.72691534184515 -1 1 2
2297 192 5 -0.147 22.413926600010004 34.28803188617444 21.581795867452588 -1 1 2
5625 469 9 0.1474 18.110507750783412 29.13583378080502 20.884583461597586 0 1 0
4221 352 9 0.1474 31.8044916914037 21.85300981207034 27.69754004215173 -1 -1 -1
1575 132 3 -0.1474 21.493235423436534 23.349624526578488 17.191312807604586 0 1 -2
5219 435 11 0.147 24.486685239744617 29.101926181843936 16.602909317603675 -1 1 1
8044 671 4 -0.1472 27.30527245528899 31.4934072366381 17.142774053667686 -1 0 1
7723 644 7 0.1474 26.096068032723537 32.27076169682344 21.83948001394366 0 1 1
8043 671 3 -0.1474 28.408888976849372 32.02671130058564 16.41865188343512 -1 0 1
8045 671 5 -0.147 27.484046487106955 30.65130233423932 18.316401494026177 -1 0 1
8046 671 6 -0.147 28.768819062803885 30.461861663095263 18.761380611850345 -1 0 1
8052 671 12 0.147 28.96995571191399 29.718707261193835 19.504319891714232 -1 0 1
8041 671 1 -0.1474 29.894379995029137 31.018050870518348 18.157325612877482 -1 0 1
8047 671 7 0.1474 30.83959446120233 30.81679245008468 18.568684971934147 -1 0 1
8042 671 2 -0.1476 29.68655528808459 31.858083453491744 17.073523732787816 -1 0 1
8048 671 8 0.1474 30.49867374853025 32.413736749721494 16.643167639542103 -1 0 1
155 13 11 0.147 30.799056294620943 32.81325820564744 21.639350686676575 0 1 -1
149 13 5 -0.147 31.283028185173595 32.05973311357294 22.21855095098495 0 1 -1
6175 515 7 0.1474 30.003650818173828 34.66618152669966 20.5935818953319 -1 1 1
8050 671 10 0.1474 26.346598584704765 31.600726816361213 16.719394285753268 -1 0 1
7728 644 12 0.147 24.673650563395086 30.382850845590752 21.48021348606658 0 1 1
7722 644 6 -0.147 25.59081894725816 30.241316266877963 22.122846468087733 0 1 1
7717 644 1 -0.1474 26.39532540441623 31.349953084583323 22.308928385616817 0 1 1
8051 671 11 0.147 26.611814898459166 30.127189934800548 18.737980149714463 -1 0 1
4144 346 4 -0.1472 16.52930139782589 37.28700359962015 16.38933081126065 1 1 1
8445 704 9 0.1474 17.540215549099376 16.86394676053533 26.95576644971805 -1 -1 2
980 82 8 0.1474 16.187916955099467 31.324551848568774 27.05910875532935 0 -1 1
4150 346 10 0.1474 17.481173862741368 37.0712754414379 16.87557439831246 1 1 1
548 46 8 0.1474 18.51035891496343 33.91696633004767 19.946367727627113 3 0 0
542 46 2 -0.1476 18.061363768989796 34.76262050055395 20.34957424756585 3 0 0
8070 673 6 -0.147 21.129653871703383 35.598180306305714 17.6872182691461 1 -1 0
8069 673 5 -0.147 21.664067137759883 34.79004892865747 16.701840557080253 1 -1 0
541 46 1 -0.1474 17.85490866970918 35.858354229421195 19.508065150728346 3 0 0
8076 673 12 0.147 21.260631802805015 35.33649555617936 18.713439039235205 1 -1 0
1113 93 9 0.1474 22.022459641214255 37.94599655710046 19.590342636853194 0 1 -2
1107 93 3 -0.1474 22.433629040195697 38.30795005062342 20.588814138949346 0 1 -2
2296 192 4 -0.1472 23.622728821959335 34.47223255739681 20.877351356233167 -1 1 2
547 46 7 0.1474 17.888286409843946 35.716454639974515 18.50001352950425 3 0 0
1108 93 4 -0.1472 23.674570725989387 39.03983539543159 20.6273315306199 0 1 -2
1808 151 8 0.1474 23.993088119301024 36.35004523597713 16.658859636758752 0 -1 2
8065 673 1 -0.1474 20.33627855600927 36.65842647618186 17.419708145591947 1 -1 0
8071 673 7 0.1474 19.899825667472047 37.232728479112296 18.25950425130791 1 -1 0
2302 192 10 0.1474 24.38846762788944 35.200038021740944 21.120299466650206 0 1 2
1109 93 5 -0.147 24.311575886905473 39.40543887857218 21.828497979505595 0 1 -2
663 56 3 -0.1474 31.938171883336075 27.934114747422132 19.685837597900097 1 2 0
545 46 5 -0.147 17.523186755803387 37.31795873540353 21.47751794820514 3 0 0
546 46 6 -0.147 17.456110381198997 37.10671173656448 20.03512502306666 3 0 0
552 46 12 0.147 17.225637976839618 37.94131822562984 19.41342382312279 3 0 0
1112 93 8 0.1474 20.860784419839597 37.461312873166506 21.936951418481097 0 1 -2
1106 93 2 -0.1476 21.805644387009664 37.96981847319457 21.812748989937518 0 1 -2
6879 574 3 -0.1474 31.954541774150023 25.508897487974238 27.09480129250972 2 0 -2
8444 704 8 0.1474 19.739238858732342 18.0184224858413 27.321031115303757 -1 -1 2
8673 723 9 0.1474 23.38097294485632 16.563306756454736 22.89843876523609 1 1 -2
2953 247 1 -0.1474 30.291824643956765 39.867511846923954 19.260246552591465 -1 -1 1
2959 247 7 0.1474 29.80135833228849 38.93499534808242 19.526575161330285 -1 -1 1
1804 151 4 -0.1472 27.343882629242447 36.767503726664934 16.570487016101747 0 -1 2
2301 192 9 0.1474 24.909819354497074 33.568141256171934 19.349185676135885 0 1 2
6390 533 6 -0.147 30.915454234784473 38.91509170742198 26.913579116090894 1 0 -1
2168 181 8 0.1474 16.41078413769933 24.061637700088923 19.35385074600196 -3 2 0
1114 93 10 0.1474 24.071222215991092 39.29631667462481 19.69709487494165 0 1 -2
1801 151 1 -0.1474 24.936562237559283 38.21325722561459 16.660649866879275 0 -1 2
6171 515 3 -0.1474 27.61171118415704 37.15846689576248 20.404958642984706 -1 1 1
2247 188 3 -0.1474 31.137245308908327 36.891602500775655 17.069507067849727 2 0 -1
1802 151 2 -0.1476 24.90810229253782 36.81262107736124 16.614472975878982 0 -1 2
2253 188 9 0.1474 30.59130840190175 37.45303668542236 17.76014884052007 2 0 -1
2248 188 4 -0.1472 31.74974047283321 35.70144939505754 17.366185462867236 2 0 -1
1803 151 3 -0.1474 26.137754118178982 36.10741631378919 16.540233159315957 0 -1 2
7667 639 11 0.147 24.708224596378365 36.67253782870849 24.674802075617404 0 1 0
6176 515 8 0.1474 28.840010787008843 35.98196140764824 19.00032179069118 -1 1 1
6169 515 1 -0.1474 29.30993206958327 35.435171950727096 20.958976426909434 -1 1 1
6170 515 2 -0.1476 28.615250534720683 36.23015677382925 20.016121289170684 -1 1 1
594 50 6 -0.147 29.38681447430819 39.89303797407877 23.55412201188115 -2 1 0
6177 515 9 0.1474 26.96057022396747 37.60844907790724 19.643696135278898 -1 1 1
6174 515 6 -0.147 29.14320086194516 35.70569476332288 22.31560799618745 0 1 1
6180 515 12 0.147 29.806398675962775 35.15695906135984 22.984838713944374 0 1 1
662 56 2 -0.1476 31.550026182790806 26.91635319342904 20.581957378171257 1 2 0
6172 515 4 -0.1472 27.485744523087533 37.447137904886034 21.791978724179604 0 1 1
1806 151 6 -0.147 26.221952855284005 38.88604500514952 16.917665542635742 0 -1 2
1805 151 5 -0.147 27.375582201910433 38.15398932570432 16.803439441500636 0 -1 2
1811 151 11 0.147 28.323381716161734 38.67692075850405 16.93639298214019 0 -1 2
1089 91 9 0.1474 26.162631846965553 21.91261662126755 23.11918313780848 1 2 -1
3154 263 10 0.1474 20.15851793648632 20.83452966477533 24.526295048956488 0 1 0
3148 263 4 -0.1472 19.549416001742028 21.659484060211664 23.977896868153074 0 1 0
8440 704 4 -0.1472 17.70068564800948 16.948217614455295 24.87286144955125 -1 -1 2
8448 704 12 0.147 20.356122020381992 17.962961336098754 22.966769776096754 -1 -1 2
8441 704 5 -0.147 18.497904034275773 17.096339953360623 23.72397284338573 -1 -1 2
8438 704 2 -0.1476 19.4318282825145 17.798979184272856 26.31934534202857 -1 -1 2
8437 704 1 -0.1474 20.257019486547716 18.043922569628418 25.17049254587026 -1 -1 2
8443 704 7 0.1474 21.227552118880773 18.387643237974792 25.31762184705722 -1 -1 2
8442 704 6 -0.147 19.803946743166463 17.713359856838803 23.900922491703582 -1 -1 2
8439 704 3 -0.1474 18.12733340836211 17.219264482362718 26.174345996373603 -1 -1 2
1084 91 4 -0.1472 24.07326767779996 22.083887302243077 22.524098804757514 1 2 -1
1090 91 10 0.1474 24.226601857196673 23.050447390106328 22.139068154289433 1 2 -1
1085 91 5 -0.147 22.834821708473957 21.42139273383226 22.576883363028212 1 2 -1
1091 91 11 0.147 22.01717729205856 21.975936253767806 22.195299759467943 1 2 -1
8447 704 11 0.147 18.097772937836492 16.77853501715129 22.724292411951254 -1 -1 2
1083 91 3 -0.1474 25.190726495908233 21.477027871471243 23.127832957876095 1 2 -1
5033 420 5 -0.147 20.25838145578423 18.706601233349538 16.556192337290433 2 0 -2
7485 624 9 0.1474 24.053972552737296 17.944174047698677 26.75055709346453 2 2 1
2161 181 1 -0.1474 16.548746584284675 23.03844015629694 17.474016003038976 -3 2 0
1088 91 8 0.1474 25.801294898440172 19.633699425417788 24.2668503968437 1 2 -1
3900 325 12 0.147 30.783341638275406 17.3279557773709 23.98449369596371 -1 1 -1
1082 91 2 -0.1476 25.02706278826839 20.24263401998734 23.83762219718074 1 2 -1
3894 325 6 -0.147 31.34468366325898 17.33593132415018 24.928054463495553 -1 1 -1
1758 147 6 -0.147 30.017067153014708 19.84997049271258 22.149723956222626 -1 2 0
1087 91 7 0.1474 23.609219371774476 18.620888458129706 24.34722033412305 1 2 -1
1764 147 12 0.147 29.437436258811136 19.090583448963017 22.686489210473738 -1 2 0
1081 91 1 -0.1474 23.785789923483073 19.587809392462567 23.809062995816117 1 2 -1
1086 91 6 -0.147 22.701422193385007 20.162486610198005 23.166079380319527 1 2 -1
1092 91 12 0.147 21.782666598458942 19.644719861501 23.220910583735776 1 2 -1
4222 352 10 0.1474 30.876953475726683 19.61616954752699 27.27764074987775 -1 -1 -1
1757 147 5 -0.147 31.345200252973587 19.812993908097962 21.900748688860567 -1 3 0
5039 420 11 0.147 19.747439917934457 18.864155329608742 17.461500341788444 2 0 -2
5038 420 10 0.1474 21.422924645432605 17.027242842149573 17.26522532181847 2 0 -2
3899 325 11 0.147 29.701635408845288 16.493089167590664 26.099452920553865 -1 1 -1
3893 325 5 -0.147 30.685140665512662 16.879960162823142 26.119374974550475 -1 1 -1
4216 352 4 -0.1472 30.190019178361343 20.418891291043735 27.526980436361956 -1 -1 -1
968 81 8 0.1474 24.072882286274627 21.194999044810583 27.179846060203346 0 1 -2
4217 352 5 -0.147 28.799568863879657 20.258776694484776 27.517737268086055 -1 -1 -1
4223 352 11 0.147 28.41624270856811 19.321091432827608 27.123016024344054 -1 -1 -1
7484 624 8 0.1474 26.292538275250358 17.75109193326741 27.707270420613995 2 2 1
3892 325 4 -0.1472 31.49995307186498 16.68948438816679 27.221025807457885 -1 1 -1
8668 723 4 -0.1472 24.938294671136298 16.14849344842905 24.406324944492873 1 1 -2
3149 263 5 -0.147 18.319893606624895 21.28729002418515 23.412902722171147 0 1 0
3153 263 9 0.1474 20.78459932557852 23.580785018757958 24.166297160461532 0 1 0
3147 263 3 -0.1474 19.926929631981928 23.026839667551187 23.750929454262188 0 1 0
3146 263 2 -0.1476 19.14869765679388 23.8926930210957 23.009036545344053 0 1 0
8699 725 11 0.147 19.288497132138694 25.56118954111589 27.35886051537569 0 2 2
8698 725 10 0.1474 17.58963114571833 27.3684714788703 27.439204188199927 0 2 2
3145 263 1 -0.1474 17.950575560467897 23.528230813647486 22.437004381549816 0 1 0
3152 263 8 0.1474 19.57724577522478 24.865036156214437 22.712367711691698 0 1 0
966 81 6 -0.147 22.648439938485573 24.28085679981696 27.0484749370783 0 1 -2
972 81 12 0.147 22.44143112442564 25.070158163321594 26.295458985813017 0 1 -2
961 81 1 -0.1474 23.297470254093653 23.14341709147759 26.595168990386682 0 1 -2
962 81 2 -0.1476 23.440270705406217 22.053371062460517 27.52001466906478 0 1 -2
2820 235 12 0.147 21.486557932138265 28.41700437046437 23.169172984026854 -1 -1 0
6394 533 10 0.1474 27.715065986369833 38.093109493886104 27.288226315346186 1 0 -1
5032 420 4 -0.1472 21.145542547789063 17.621535172913383 16.404037020732208 2 0 -2
1763 147 11 0.147 31.89400641268248 19.12941941207338 22.4176734041138 -1 3 0
967 81 7 0.1474 23.52832386506492 23.060688653472877 25.50747416492783 0 1 -2
2815 235 7 0.1474 19.874704821072037 27.379228035156245 24.76199552906717 -1 -1 0
2814 235 6 -0.147 21.3644594060768 28.819350523517965 24.16197690637985 -1 -1 0
3549 296 9 0.1474 16.57912196682704 25.26921716142187 24.763723805516523 1 1 0
2254 188 10 0.1474 31.443792347292852 35.206452156524634 18.24903003717678 2 0 -1
7604 634 8 0.1474 23.25471303794437 28.302226948364527 27.416470104631742 -1 -1 2
4163 347 11 0.147 23.584432304132015 16.349556716189095 20.68687050434994 0 1 1
6880 574 4 -0.1472 31.967235123030314 24.56099739272642 26.07773766260735 2 0 -2
6692 558 8 0.1474 31.38966677938113 24.081330909137446 16.518659102598296 2 1 2
5985 499 9 0.1474 28.699704994664096 23.624850599923214 22.775858535005483 1 -1 5
5978 499 2 -0.1476 27.501043390970217 24.409702352555044 24.279754466921297 0 -1 5
5983 499 7 0.1474 26.324042661943324 25.509775571951472 25.70376757151722 0 -1 5
5977 499 1 -0.1474 26.457178514968213 25.279392936476828 24.596806736173104 0 -1 5
5988 499 12 0.147 24.76746791132377 26.33547947667512 23.832460436840343 0 -1 5
5982 499 6 -0.147 25.625216171997888 25.762440691184615 23.569861156133875 0 -1 5
5979 499 3 -0.1474 27.83254398481631 24.221848947560233 22.92610139973601 0 -1 5
5987 499 11 0.147 25.258975033948385 26.030978718282913 21.470909216906893 0 -1 5
5981 499 5 -0.147 25.946600490460916 25.603394965166256 22.19341309544774 0 -1 5
5980 499 4 -0.1472 27.06285353625488 24.795243849890575 21.847583346601144 0 -1 5
3450 288 6 -0.147 31.658313154470054 18.512225634433598 18.43148763431301 0 0 0
8372 698 8 0.1474 18.667164166444437 37.079386212325275 27.58043544831501 2 3 0
4215 352 3 -0.1474 30.749632307854686 21.64853712160891 27.67754520237926 -1 -1 -1
6878 574 2 -0.1476 31.29400322503178 26.708527721285 26.884577750746555 2 0 -2
5984 499 8 0.1474 28.244906559358967 24.038365064090108 24.981077995706933 0 -1 5
6882 574 6 -0.147 30.622622193945467 25.91963763290864 24.6539735595485 2 0 -2
6881 574 5 -0.147 31.363567114577833 24.75839526174604 24.855035074708674 2 0 -2
6887 574 11 0.147 31.353521041050016 24.067491718763467 24.079125617106477 2 0 -2
6888 574 12 0.147 29.969060299442567 26.08903344070869 23.78503753960341 2 0 -2
4079 340 11 0.147 20.15251028532996 39.89454576229277 20.116797006764262 0 -2 0
4080 340 12 0.147 21.438618296323966 39.84569946233619 18.043141146779444 0 -2 0
6877 574 1 -0.1474 30.624051519026047 26.89942251064021 25.66657158754533 2 0 -2
7598 634 2 -0.1476 24.352564370923442 28.240346807496486 27.587059775931657 -1 -1 2
6389 533 5 -0.147 29.5767499720051 39.01910891801364 27.180507948841896 1 -1 -1
4218 352 6 -0.147 27.963756488609977 21.30079637833499 27.987728182593916 -1 -1 -1
7733 645 5 -0.147 21.827521996542522 39.84687572466321 27.431555918506014 0 -2 2
2555 213 11 0.147 16.650865551232034 38.702206720109416 26.33532136042036 0 0 1
974 82 2 -0.1476 16.342002423665317 31.283420363719575 25.961273796385356 0 -1 1
978 82 6 -0.147 17.928235942728584 30.714186328121635 24.18549174635516 0 -1 1
977 82 5 -0.147 17.091045466446428 31.300447685833685 23.19728489265782 0 -1 1
984 82 12 0.147 18.908667272263646 30.286036343087428 24.0194192585446 0 -1 1
983 82 11 0.147 17.448554604533733 31.38268340989091 22.152475383064438 0 -1 1
2819 235 11 0.147 22.938121274506155 30.385390306116143 23.89242694985698 -1 -1 0
2811 235 3 -0.1474 21.04429491533854 29.897548222058695 26.778203178587376 -1 -1 0
2818 235 10 0.1474 22.35954915045398 31.517851671957878 26.072428110001535 -1 -1 0
973 82 1 -0.1474 17.555345764847207 30.672347765352722 25.54909039117052 0 -1 1
8375 698 11 0.147 20.127335394498672 32.874728835980534 25.120273844597797 1 3 0
2812 235 4 -0.1472 21.86147477327198 30.529672762539178 25.774446679823324 -1 -1 0
2813 235 5 -0.147 22.066352300274207 29.955048005795835 24.5014047294194 -1 -1 0
2809 235 1 -0.1474 20.47112233971103 28.219229162460522 25.082183530877128 -1 -1 0
979 82 7 0.1474 18.147786928675554 30.329650211435155 26.323590706911748 0 -1 1
2810 235 2 -0.1476 20.334694748962676 28.70959945438488 26.41338730965837 -1 -1 0
2817 235 9 0.1474 20.936910698912214 30.29551424016138 27.756353742559245 -1 -1 0
2303 192 11 0.147 22.1360209696241 34.940291272863405 22.379810294735933 -1 1 2
7603 634 7 0.1474 24.704482000267156 30.259089301819035 26.80799066838056 -1 -1 2
2816 235 8 0.1474 19.756705157212128 28.25945081350175 27.19055157842467 -1 -1 0
1324 111 4 -0.1472 30.51833231892169 30.780288738855848 27.29954207920426 1 -1 0
7724 644 8 0.1474 28.1826177819263 32.013928096176116 23.33863842815017 0 1 1
156 13 12 0.147 29.64242915480768 30.549681666953976 22.163412116670234 0 1 -1
7664 639 8 0.1474 25.364308201428482 32.47152862133835 27.387445540803565 0 1 0
1812 151 12 0.147 26.26685882159562 39.94654213268924 17.08516870134129 0 -1 2
6884 574 8 0.1474 31.302579219054127 27.416367371410715 27.733393415547656 2 0 -2
7727 644 11 0.147 25.111091902616643 28.261277462585365 22.665110725430086 0 1 2
7602 634 6 -0.147 26.56375552641024 29.421531643874854 27.1798815153749 -1 -1 1
6393 533 9 0.1474 28.477164018855127 35.88342840270857 26.289932515120988 1 0 -1
7718 644 2 -0.1476 27.52393967283791 31.24420004620815 23.155425110287744 0 1 1
7725 644 9 0.1474 28.51652422374473 30.091220831315475 24.62350796950312 0 1 1
7719 644 3 -0.1474 27.687954107877168 30.0964666428136 23.93296291153232 0 1 1
6883 574 7 0.1474 30.10123269190063 27.791639627926205 25.47993339566197 2 0 -2
150 13 6 -0.147 30.62261052399174 30.848942911938536 22.503560648471467 0 1 -1
1321 111 1 -0.1474 28.867444922119958 32.96078970551164 26.567846762031458 1 -1 -1
7659 639 3 -0.1474 25.654827297956174 33.44449438573626 25.506895708267415 0 1 0
1326 111 6 -0.147 29.873774870427578 32.44955495668789 25.66727008180628 2 -1 0
7720 644 4 -0.1472 26.7991224911665 28.99775107163318 23.794442519141565 0 1 1
7721 644 5 -0.147 25.854070184224767 29.04153953345198 22.785402947426537 0 1 1
7726 644 10 0.1474 26.98248820046789 28.25374596593077 24.450010577785882 0 1 1
1325 111 5 -0.147 30.77135028390843 31.42513910862856 26.072505774165734 2 -1 0
7666 639 10 0.1474 25.88943843344517 34.70610327652178 23.7203327409719 0 1 0
1332 111 12 0.147 30.00838754162967 32.83880359010898 24.680030009075345 2 -1 0
1322 111 2 -0.1476 28.65192229599863 32.285875462493244 27.813319279357163 1 -1 -1
7665 639 9 0.1474 26.16372889238098 32.62275559738459 25.088871662709227 0 1 0
7597 634 1 -0.1474 25.140503813372547 29.35932476652777 27.111016159230395 -1 -1 2
1331 111 11 0.147 31.582414872967334 31.12319898926331 25.379089660736017 2 -1 0
7608 634 12 0.147 27.113582204600394 30.280598511686527 26.8624088090786 -1 -1 1
7601 634 5 -0.147 27.232674674694294 28.341744703989836 27.80333466473978 -1 -1 1
7607 634 11 0.147 28.323738781842746 28.437079099057346 27.96718611271943 -1 -1 1
1330 111 10 0.1474 31.101755184069766 29.9276177045084 27.610890967956546 1 -1 0
549 46 9 0.1474 18.32528355965728 34.213105798687046 22.48232111211828 3 0 0
543 46 3 -0.1474 18.167810842137488 34.985801821787895 21.792116022595472 3 0 0
544 46 4 -0.1472 17.869916752496053 36.26645718127879 22.313200536106653 3 0 0
8373 698 9 0.1474 17.01850801238924 35.76478119423804 26.333851811335425 1 3 0
1116 93 12 0.147 24.13539778131198 39.44487013864509 23.927192755093976 0 1 -2
7368 614 12 0.147 19.490231630285127 39.59058423248234 23.16056405584688 1 -1 0
1110 93 6 -0.147 23.699080778771712 39.03041718589716 23.00695740896887 0 1 -2
550 46 10 0.1474 17.925959462783315 36.45482490906252 23.33577295889585 3 0 0
8374 698 10 0.1474 17.683720457784855 33.72358549760244 25.072957234587328 1 3 0
551 46 11 0.147 17.28456690988958 38.25674605337645 21.93269906187588 3 0 0
8376 698 12 0.147 21.742593250942523 34.18318665406174 26.444097539197053 1 3 0
8368 698 4 -0.1472 18.402888843558927 34.273465576779 25.635270079505652 1 3 0
8367 698 3 -0.1474 18.025922891225655 35.51750172450121 26.25238856756217 1 3 0
8369 698 5 -0.147 19.738624896171167 33.84897462942359 25.602987362786223 1 3 0
8370 698 6 -0.147 20.722559485375992 34.59779225098978 26.40902111955986 1 3 0
1105 93 1 -0.1474 22.46372990831875 38.38995627746062 23.00216832068672 0 1 -2
7661 639 5 -0.147 24.84296054202851 35.79946370349932 25.311083313921362 0 1 0
1111 93 7 0.1474 22.026873655680543 38.17722955265584 23.946018412143466 0 1 -2
8365 698 1 -0.1474 20.279219428337868 35.68365396825879 27.10976105752494 1 3 0